207
Lattice="14.802 0.0 0.0 7.401 12.818908 0.0 0.0 0.0 25.0" Properties=species:S:1:pos:R:3:momenta:R:3:forces:R:3 config_type=H2O potential=-3.1179126313894097 electron=662.1013857710534 energy=-1328.8882794750564 pbc="T T T"
Ni       7.00141521       6.06479996       2.22806847       0.97359868      -0.42793699       2.11932172       0.21111300      -0.51782861      -0.13223833
N        8.33552199       7.42089898       1.94954864      -1.18186905       0.19882797      -0.41869285       0.46704693       1.40553811      -0.31854794
H        6.24820035      10.32293409       4.81635257       0.14986914       0.13659121      -0.01598257      -0.59064971      -0.24915284      -0.02832505
H       18.07321794      10.07837659      11.94904871       0.30253481       0.00339051      -0.14144627      -0.12688446       0.17150905      -0.33858063
H        3.63836771       1.63481020       6.47784099       0.02504369       0.16254059      -0.05801801       2.02651513       0.61359601       0.21615778
H       21.50664461      12.72576746       5.49007487       0.01469130      -0.02637601      -0.31085733      -0.09013456      -0.81364972      -0.90440603
H        6.18381508       5.79182822      10.28974374       0.11309798      -0.25570501       0.06647995      -0.12718325      -0.76632119      -0.19158150
H        9.73437346      12.58893002       6.02654700      -0.21518836      -0.26961989      -0.17195271      -0.11946904      -0.04055925       0.26419827
H        1.19945664       0.95473414       6.07223001       0.06407980      -0.02977193      -0.05609320       0.42083567      -0.52091670       0.08091152
H       10.08314339       2.64195542       5.91124889      -0.28095254       0.07066265       0.19114071       0.21203548       0.15071575      -0.76576398
H        9.41162986       2.73073500       4.45976635      -0.08810420      -0.37890075      -0.21694475       0.03162781       0.06221464       0.02408086
H       15.59091960       3.15745394       8.31887571       0.02299241      -0.24516770      -0.09057582       0.52438957      -0.02697697       0.25899272
H       16.09337896       4.66680845       8.12664179       0.10506591      -0.06076432       0.05243698      -0.33572405      -0.26247183      -0.05080536
H       13.92147559      11.78067227       8.06774151      -0.03835356       0.00315887       0.26465923      -0.52581448       0.45236272      -0.22778338
H       14.50277004      10.62245947       8.79158262      -0.16332582       0.02229055       0.05628419       1.71365472      -1.31093260       0.43339259
H       14.70807958       0.28588351      11.37895166       0.19728846       0.01234436      -0.13594687       0.09851328       0.82682375      -0.37636135
H       14.52019417       1.82003588      10.85152237       0.00200475      -0.09827393      -0.03474239      -0.21687490       0.16157192       0.24922126
H        6.12598955       7.11704706      10.83057946       0.02457470       0.01724266       0.03223827       0.26025540       1.04445248       0.37661991
H        4.89804169       6.86220113       5.97440529      -0.15292631       0.11745226      -0.23674930       0.75057768      -0.33101913      -0.18901818
H       19.23719378       8.10369948       9.97300638       0.08339345      -0.19770190      -0.14677806      -0.30710779       0.18427879      -0.26168206
H        5.47885907       9.28315059      10.22680273      -0.02010671       0.13539158      -0.03105987      -0.13854486      -0.04435647       0.10305045
H        7.17699947      10.32821638       9.36283064      -0.25455199       0.03907407       0.25690157       0.06674893       0.35798990      -0.78682187
H        7.94744343       9.78747974       7.08687158       0.03694264       0.05975295       0.23772670       0.28246293      -0.45813846       1.67636001
H        0.98214424       1.17322830       9.40275017       0.20741315       0.02426823       0.00098953       0.38249843       0.25751669       0.40463034
H        1.77559016       1.13233354       7.96071734      -0.03277546       0.01041894       0.05297642      -0.16370896       0.83909286       1.32633417
H       14.28196410       5.70193073       5.63245335      -0.06740801       0.22335931       0.02214375      -0.31605155       0.55177326      -0.73833798
H       14.45876813       5.86623405       4.01297224      -0.11428392       0.06630854       0.13434711       0.28570437       0.55843486       1.62464740
H       12.31561144       4.56426915      10.74190842      -0.12051284       0.02150206       0.20837088      -0.66706850       0.85437025      -0.12206717
H       10.85363924       5.13965492      11.20587190       0.13196628       0.03738403      -0.12494245      -0.64261467      -0.11895800       0.36784707
H       12.67055502       9.41674065       6.67292815       0.12081927      -0.05144641      -0.06356155      -0.89453295      -0.17892147       0.03474607
H       12.02867777      10.01973580       7.87907542      -0.33868207      -0.24777666      -0.07880091      -0.08714002       0.19965995       0.18088801
H       16.99966399      11.53196010       6.46752105       0.20577775      -0.03649978       0.06674546       0.44832088       0.29474408      -0.19314350
H       18.20448230      10.57750473       6.24044871       0.09082039      -0.01953559      -0.16220495      -0.17782470       0.76535966       0.54118167
H       13.71963524       4.48254942       7.27750381      -0.05011466       0.12014698      -0.17044296       0.25261641       0.25771333       0.57530687
H       12.49001378       5.58518029       7.32255985      -0.08243548       0.11804958      -0.11282857       0.16603750      -0.76128733      -0.18752155
H        5.80615547       0.87558812       6.61660528      -0.15807720       0.01572489       0.02537690       0.29531315      -0.52394287      -0.19170604
H       14.26383267      12.65246971       6.03605341       0.11498164       0.05722202       0.08423349       1.89146832      -1.52922304      -4.05447667
H        4.46918484       2.55946215       8.14064914      -0.18449407       0.13109241       0.06435862       0.36806393      -0.27923970      -0.81890502
H        3.29111515       2.56263528       9.11041507       0.09441909      -0.18678653       0.18580272      -0.67015142      -0.59856289       0.21607755
H        6.47098432      11.12152672      11.68536974       0.07954545      -0.21856153      -0.02088680       0.06186877       0.88469170      -0.03184023
H        7.13749018      11.57115788      13.00604655       0.04695317       0.02960345      -0.15818360       0.26094111       0.03099338       0.39659166
H        5.94339764       5.13937087       8.01698032      -0.10864511       0.29627364      -0.03099489       0.93291936      -0.96149758      -0.34507257
H       16.52371398      10.38137034       9.80439567       0.12717194       0.19516331       0.14853842       0.14617080      -0.55394954      -1.05102996
H        8.18626156       5.32463873      11.64387458       0.27939520       0.01167789       0.10043415       0.80482619      -0.21042509       0.18266360
H        2.99318523       4.94363833       5.33935946       0.13844729       0.10278142      -0.31147503       0.14035656       0.41010088       0.49074909
H       16.43233007       5.64913074       5.37014584      -0.03478321       0.11070172      -0.19459056      -2.12804277       0.59402011      -0.90724913
H       18.17135714       6.83788843       6.02489274      -0.07343974      -0.01580433      -0.17782920      -0.87870778      -0.67683802      -0.09990145
H        4.56487748       2.90698715       6.10782582      -0.10632322      -0.27382678       0.06313216       0.10674494      -0.62598648      -0.26024184
H        8.89122292       3.95699579      11.59355816      -0.08542279       0.09256773      -0.34537809      -0.37046126      -0.73937093      -0.17021868
H        7.81188756       6.53488809       7.46510274       0.17172851      -0.11154463      -0.22526004       0.41907019       0.30653510       0.95757142
H       13.77890901       1.50000440       5.35032126       0.23970496       0.23486275      -0.04605986      -0.59339563       0.33134624      -0.53714516
H       13.28981794       0.08004043       7.29497406       0.19257391      -0.04483391      -0.02444531      -0.84973928      -0.28977382       0.78959978
H        8.31292405       8.71062166       8.28406152       0.14984451       0.06172102      -0.13902562      -0.14735161      -0.50886639      -0.72193979
H        7.74953655       6.63960226       9.02811862       0.05064154       0.19517668      -0.39210545      -0.13096672      -0.03434466       0.52448199
H       15.82121691      11.84276138       4.02781420       0.12288044       0.30941088      -0.09704381       0.21891241       0.26354255      -1.16319115
H       15.21963037      10.73973005       4.97439358       0.17572102       0.09129567       0.11008100       0.50467728       0.78869044      -0.10614258
H        4.91925852       4.65913073       4.43010766       0.20686618      -0.04348348      -0.14395867       0.11460449      -0.13477422       0.32858853
H        3.73211054       3.97957120       3.71333216       0.13233413       0.05106616       0.14159493      -0.26884282      -0.44610881      -0.18351001
H       10.75881648      10.37633343       5.96743197      -0.08213248       0.25101025      -0.17108980      -0.10525890       0.58487841      -0.08515951
H       17.46077996       8.42503485       8.83195186       0.02120328      -0.04947677      -0.23573906       0.09045970      -0.42614206      -0.13869171
H        7.18877186       2.46684698       9.98485657       0.13038105      -0.05188434       0.12668553       0.39992931       0.05197770      -0.24392417
H        6.27424926       2.56298959      11.18495081      -0.00607735      -0.26587586      -0.15793819      -0.28239120       0.00336652       0.28180851
H       12.81000636       2.71625872      10.10641517       0.08597980      -0.12355526      -0.15229834       0.17808527      -0.09995590       0.06077928
H       13.92977370       3.75846521       9.67119615       0.00369589      -0.07673920      -0.29511416       0.54769207       0.27639515      -0.36248410
H       20.87816241      11.53944606       9.54843995       0.06615419      -0.04111000       0.04115074       0.40516608      -0.58260819      -0.61116856
H        6.33482670       4.94863910       6.51099916       0.18325798       0.04996932      -0.10998249       0.53997290      -0.09594171      -0.04200377
H       19.11912907       8.74447198       5.17845273       0.01067827      -0.47711941       0.05794139      -0.25399652       0.31023320      -0.45314832
H       18.96152394       9.81877933       3.86955178       0.06347140       0.12864023       0.09720913       0.05656750      -0.63562839       1.04434150
H       10.38397822       6.34103237       7.94167253      -0.17002268      -0.07166678      -0.16994187      -0.31889574       0.38581535       0.21688337
H       11.25374617       5.82121533       9.23128861      -0.00627303       0.28039671      -0.05592690       0.05986772      -0.19367950      -0.14496395
H        4.00626939       6.02741216       9.09503876      -0.00656088       0.34259845      -0.09742284      -0.14679785      -0.08977393       0.11848764
H        4.29619233       4.41873556       9.39588677      -0.02288892       0.37012848      -0.04657933       0.28280189       0.11229000      -0.49136857
H       19.35115584      12.00357667       7.57457562      -0.36113864      -0.10314486       0.16423083       0.04589563       0.29756720      -0.01150677
H       10.32268161       0.88054036      11.08656412       0.04459536       0.19410919      -0.07048563       0.61770177       0.13191103      -0.38627520
H        7.79216171      10.59972054       4.77865715       0.15486176      -0.03875372      -0.09049500       0.31271684       0.00901649      -0.14942183
H        9.21825723       3.20741063       7.83865548       0.08615089       0.02145417      -0.04722072       1.03720010      -0.13451445       0.08309130
H       17.36603243      11.52075804      11.90338725      -0.01309227       0.23159354      -0.08050168       0.03903304      -0.22857704      -0.38579688
H        8.89083198       0.90318750      11.61652125       0.19427284      -0.24253058       0.15102724      -0.39564059       0.10766149       0.01581098
H       12.13427533       0.72302102       9.21779564       0.33916507      -0.03088998       0.21028385      -0.28918177       1.15846861       0.27892898
H       11.21227022       2.02693544       9.06228284      -0.26137381      -0.07517218       0.00822893       0.64463704      -0.55116684       0.75984384
H       10.53132001       4.18788863       7.87181339      -0.07448469      -0.18746617       0.11024677      -0.03122888       0.32317490      -0.10279133
H       16.83628282      10.46181621       8.14031630       0.04891100      -0.11375552      -0.03062635      -0.99475286      -1.02303651       2.09601257
H       13.90371281       8.90472094       4.28604442      -0.14440785      -0.06420883      -0.16681214      -0.36452921       0.04917257      -0.55015621
H       14.73321726       8.26504086       5.35245915      -0.27377967       0.03130323       0.08309377      -0.07883431      -0.11971475       0.06600372
H       10.54304151      11.21099056       4.56305591       0.20146095      -0.26003045      -0.13647304      -0.05050942      -0.36088833       0.73825431
H       18.59367563       7.80529819       7.86561069       0.00396634      -0.09065707       0.30721118      -0.21587488      -0.11240569      -0.34305583
H        7.29602636       3.31656504       7.72793357       0.04839125       0.06472847      -0.19438865      -0.65334322      -0.13599248       0.19197245
H        7.33157368       1.67297951       7.82754351      -0.02543449       0.02850369       0.00232889       0.09231662       0.27717600      -0.22380326
H        7.97370758       7.64885504       3.94836019       0.04114385      -0.32359409      -0.09924457       0.17972337      -0.17010212       0.55295392
H       12.79655292       3.77786807       5.51363124       0.12693445       0.23072258      -0.03352664       0.19521164       0.47051029       0.12929689
H       11.85013185       2.99860031       4.63456522       0.12639527       0.04783807      -0.02855945       0.31712196      -0.09366308      -0.26591834
O        6.12012181       5.50413215       4.77264442      -0.15714763       1.14114911       0.34670832      -0.47727741      -0.37621199       1.50455049
O        7.62628071       2.52164545       8.24102860      -0.28032376       0.20463859      -0.69786816       0.40248047      -0.44131401       0.16077558
O        6.80185753       6.39623191      10.74895575       0.95939725      -0.12729171      -1.62179089       0.04977858      -0.27847233      -0.23843096
O        2.10399677       0.66966599       6.41022141      -0.23643091      -1.16510205      -1.01861711       0.00704558       0.58750614      -0.33290274
O       10.21589706       2.44443740       4.92632328      -0.55381230      -0.21747237       0.64926141      -0.14274086      -0.10833812       0.89718349
O       15.30002080       4.11669142       8.30740822       0.76690494      -0.37458931      -0.29296999      -0.29694451       0.15094822      -0.21509327
O       13.68465650      11.09203155       8.72392335      -0.88365533       0.83759036      -0.17982528      -1.56360891       0.62008146      -0.09237676
O       15.12648199       1.05173083      10.85966394       0.69495508       0.24189261      -0.46235684      -0.25933968      -0.97595962       0.55609994
O       18.95293545       7.41564503       6.23139283       0.05984429      -0.15882942       0.81756144       0.79864151       1.25445692      -0.10242578
O        5.01925182       8.50932880      10.65338082      -0.31636162       0.80376527       1.04903964       0.31809326      -0.09221248       0.40510149
O        8.19048534       9.66104590       8.06270039       0.57764720      -0.86837487      -0.07187851      -0.31322056       1.22524366      -0.88285568
O        1.59495171       1.70731772       8.81350045       0.53152191       0.51312247      -0.84781702       0.18793500      -0.77049895      -2.03104317
O       14.73565718       6.26044059       4.90747608       0.29234944       0.26763319       0.01382616      -0.32421339      -1.02073186      -0.88510755
O       11.64285220       5.34462347      10.67982376      -0.56364781      -0.88585444      -0.87181229       1.04369360      -0.37257317       0.02263872
O       11.76224875       9.49316582       7.09219612      -1.25092967       0.00803813      -0.06198562       1.12187039       0.08198541      -0.57002991
O       17.83357976      11.24216495       6.92677975      -0.20160068      -0.11878937       1.86395731      -0.24423085      -1.12111048      -0.89239364
O       13.08640348       4.99849410       6.73915141       1.22723270       1.12836013       0.09291938       0.28347031       0.39867560      -0.37846158
O        6.51323942       0.17819250       6.79329696      -1.17373690       0.11694258       0.40586546      -1.87273849       2.32619198       4.10922008
O        4.24722088       2.73621983       9.07132435       0.84598607       0.27795162       0.84955778      -0.04556047       0.79720132       1.61454048
O       21.33232904      11.90054618      12.33179717       0.45253349       0.78682607       0.12164505      -0.22374657      -0.85034188      -0.37899738
O       16.27792052       9.95483714       8.91243662       0.05605981      -0.12298832      -0.18768364       1.51539800       1.29093469      -0.86538889
O       17.35754463      10.59729831      11.52845961       0.43008721      -0.21579151      -0.27680778      -0.05077473       0.06543399       0.30643457
O       17.24106378       5.62917915       5.85665062      -0.82175933       0.19722563      -0.75863995       1.66472833      -1.00774171       0.62343474
O        4.62625449       2.05208469       6.61895986       0.86506294      -1.07688575      -1.09571056      -2.58546529      -0.33719469      -0.91867699
O        9.02618904       4.84766393      11.93089997      -0.55983702       0.76710903      -0.40602600      -0.48211062       1.02243119      -0.08509111
O       14.20007368       0.79086874       5.86870781      -0.73705228       0.07545139       0.30188052       0.58965139       0.52254007       1.21264929
O        8.24369862       6.97949563       8.25421160       1.77279014       0.00866877      -1.10027236       0.04263869      -0.33355598      -1.09153608
O       15.69603810      11.63764778       4.94987901      -0.39427057       0.16247998      -1.26339315      -0.88014976      -1.31345799       1.62544812
O        4.11938801       4.05674842       4.60184891      -0.34046153       1.35737072      -0.07054362      -0.10816704       0.00732402       0.21028600
O       18.06349219       7.63368880       8.68031704      -0.52828797      -0.18084541       0.61752403      -0.26229767       0.57884821       0.72925694
O        7.21716244       2.49981513      10.97583045      -0.13786370       0.12469506      -0.02780804       0.14951531      -0.11930979      -0.11275968
O       13.47047012       3.40455121      10.45044218      -0.48442948       0.06600336      -0.76286630      -0.34890930      -0.26774855       0.41905371
O        6.70669174       4.76007620       7.41632765      -0.59007533       0.13342516       0.37731986      -1.74344774       1.30003535       0.08323088
O       19.13118624       9.70026386       4.84702216       0.46000707       0.99070060      -0.13009972       0.13168940       0.40924825      -0.20612535
O       11.16511363       5.83342967       8.21275278       0.36844897       0.71019026       0.24444041       0.00705723      -0.09391264       0.04175207
O        4.69111805       5.33975996       9.27147755       0.40792189       0.62527847      -0.46596332       0.25320024      -0.04589155      -0.01809686
O       20.09087556      12.49524004       8.01930968       1.44970122       0.03760726       0.49304230       0.64131177       0.30863221      -0.46005586
O        6.95938194      10.87070530       5.19184792       1.15055614       0.20995858      -0.65348776       0.23529160       0.38722447       0.46664238
O        9.75963117       0.49802341      11.77978326      -0.94400654      -0.10936946       0.64835606      -0.18708019      -0.04268505       0.36047101
O       11.79178672       1.54886041       9.75591712      -0.57174265       0.08516301       0.76381793      -0.95707472      -0.44796602      -1.56133946
O       10.20060431       3.29630600       7.59941353      -0.52993968      -1.19060735      -0.61343083      -0.79099350      -0.73541017       0.25294925
O        6.46356197      10.71464754       9.93282963      -0.55909285       0.75500574       1.37276198      -0.45414429      -0.06321077       0.90744524
O       14.26552846       9.10938962       5.15742409       0.93362050      -0.14151817      -0.85072482       0.35136753       0.17183769       0.39358398
O       10.18022985      11.05694223       5.47085188       0.07959964      -0.44761050      -0.15745018       0.15678807      -0.20858071      -0.69350574
O       12.81548771       3.26769933       4.67485413      -0.72598010      -0.84035357       0.00480568      -0.34408000      -0.68900581       0.05952218
O        7.59648550       7.13780908       4.71772874       1.57322439       0.94837932       0.32913286       0.09655904       0.31013029      -0.50013975
C       18.14730341      11.75416279       1.75906260       0.51864025      -0.41432248       0.47984960      -0.23236717      -0.55603338       0.35648067
C       16.92195663      11.00899625       1.73145316      -1.17613878       0.38574471      -0.33501073      -0.24687799       0.68906188      -0.96622180
C       16.94190240       9.59913592       1.54050478       0.58946418      -0.20294025      -0.56375191      -2.53499662       0.65356014       0.78359584
C       15.64071067       8.92773043       1.51974871       0.39891840       0.10594535      -1.05342224       1.54680442      -1.87343479      -0.03688396
C       15.65248184       7.46842858       1.48818384      -0.24438036       0.44325837      -0.93727832      -0.46040666       1.13245797      -0.84664557
C       14.44525332       6.74147603       1.40149791      -0.40377483      -0.10237584       0.01271803      -0.48219668       0.03079875       0.04881885
C       14.44737446       5.31780483       1.29647181       0.25134862      -0.01966501       0.32034960      -0.87720901      -0.52232349       1.30425620
C       13.21584036       4.57165367       1.39956452      -0.54571775      -0.48340577       0.39122753       0.80169862       0.32560293       0.67302715
C       13.22815962       3.14764651       1.57003236       0.06843415      -0.21998601      -0.51600735       0.42584977       1.41146052      -0.43169629
C       12.01976485       2.46463026       1.67982051      -0.26842705       0.19546090      -0.50167976      -1.81679692      -0.40723790       0.48130652
C       12.00900171       1.04519028       1.78145577       0.14899196      -0.86488563       0.27469429      -1.34419595       0.36818479      -0.47506363
C       10.73812058       0.35886622       1.78530773      -0.25507519      -1.03544336       1.01440229       0.41436996      -0.15498711       0.22636607
C       15.66397212      11.71559729       1.72666534      -1.27997855      -0.22169607      -0.78306011       0.37476552       0.09939239       0.91392025
C       14.42272183      11.00833239       1.70447935      -0.49965515       0.15469281       0.15908635       0.65775077       0.47490626      -0.08571927
C       14.40423181       9.58687009       1.57220081      -0.16075558       1.02295528      -0.44358207       0.09538054       1.07502649      -0.10979017
C       13.15457539       8.91326609       1.50626983      -0.51381732      -0.79990123       0.48992675       2.44294066      -2.65138964       0.80999270
C       13.21007396       7.42302015       1.51255253       0.44088576      -0.68250089       0.31704353      -0.25231892       1.88858340      -0.30912016
C       12.02505764       6.68926984       1.64477995       0.63117535       0.22304592      -0.39068880      -0.82762879       0.47636474      -0.20343189
C       12.02647262       5.27712862       1.62635264       0.19402651      -0.39271589       0.61751316      -0.93067100      -0.39745916      -0.37742396
C       10.78699539       4.56875857       1.77800245      -1.28381234       0.06758488       1.06498306      -0.91715958       2.63225611       0.32716082
C       10.76057509       3.18047864       1.78308191       0.47630626      -0.38025573       0.85932306      -0.63161607      -1.48437516       0.10077707
C        9.46706359       2.48262769       1.92348690       0.24168117       0.10876927      -0.35849619       1.05124828       1.12728070      -0.42390226
C        9.48097977       1.05215098       1.83902212      -0.20735070       0.39668997       1.00801921       0.44279621       0.52028494       0.51167800
C        8.26119538       0.32479012       1.89830383      -0.75517757      -0.42751995      -0.08664555      -0.34955307       0.27788998      -0.89855601
C       13.23867171      11.76625976       1.77716920       0.11757961       0.96139797       0.60444089      -2.02759834      -0.35051579      -0.86407957
C       11.96974461      11.08391625       1.61482270      -0.73067218      -0.66236697       0.62770955       1.62689443      -1.62507565       0.49541516
C       11.98237554       9.62000406       1.60563801      -0.33531885      -0.43321164      -0.27071536      -1.70767351       1.18689177      -0.96423340
C       10.76599604       8.88005089       1.54588075      -0.32564038      -0.09592576       0.47854900       0.29173608      -1.15186046       1.08244713
C       10.79218031       7.40785394       1.73182465       0.59132034      -0.27284514       0.33577405      -0.06102561       2.55738397      -0.88054034
C        9.55345541       6.78232628       1.85706473      -0.07710359      -0.81329694       0.38544365       0.69364411      -0.22914953       0.29070958
C        9.54925163       5.37730470       1.94672439       0.36954476       0.68131734       1.02139328       0.98795368      -2.53218772      -0.49561285
C        8.24359833       3.29079088       2.03760355       0.19116432       0.30693898      -0.06696795       1.00201012      -1.54635780      -0.96683466
C        7.02536242       2.53471456       1.86939967      -0.37892111       0.08672638      -0.54151240       0.34612298      -0.35662265       1.31619652
C        7.02717812       1.07660953       1.88102325       0.19946114       0.73132739      -0.47659028       1.06741047       1.02321090      -0.11763255
C        5.81130348       0.36896080       1.81065217      -0.49745155       0.38096791       0.36837982       0.76957947      -0.02031466       0.06614429
C       10.75525002      11.76136710       1.58423929      -0.00859748      -0.28609057       0.10050168      -0.89134164       0.80990634       0.84049348
C        9.52470544      11.03639985       1.63062926       0.69709608       1.81171310      -0.53083822      -0.91435596      -1.05353698      -0.48371541
C        9.53407842       9.56836385       1.57381435       1.03993979       0.91062670       0.37460387      -1.23167639       0.73668872       1.28081015
C        8.29270985       8.83779214       1.84500871       0.27147556       0.87862636       0.13392524       0.29289683      -0.73967239      -0.87502624
C        5.79682087       3.26133221       1.88439708      -0.52488578       0.18393235      -0.26304095      -0.02168631       0.90152371       0.01748835
C        4.58652493       2.52810144       1.79261499      -0.00417726      -0.19207743      -0.53424981      -0.77464849       0.11569749      -0.28909335
C        4.62545576       1.11159562       1.75214338      -0.04924055       0.45698181      -0.40647394      -2.70537445      -0.98763293       0.22085066
C        3.34480601       0.37465199       1.72214012       0.47966072      -0.53746258       0.86721902       0.96887779       0.74068535      -0.38877336
C        8.25803586      11.72993686       1.72157760       0.02146508       0.12728044      -0.14127125       0.76696937      -1.70410180       0.11894934
C        7.02201902      10.95159105       1.83134539       0.00518880      -0.33807154       0.17927675       1.27622784       1.28992565      -0.32224281
C        7.02377647       9.54164375       1.84132821      -0.47802983      -0.70648911       0.50467307       0.49366670      -1.19651922       0.48297561
C        5.75523178       8.82131787       1.84199177      -0.08675377      -0.99318034      -0.04452939       1.47439855      -0.63784771       0.07185445
C        4.45859111       6.73595240       1.70778458       0.19112695       0.32310109       0.50468200       0.66072201       1.76080932      -0.07433939
C        4.51967993       5.33580139       1.75418202       0.15811921      -0.52924408      -0.04437285      -1.24325788       0.10822206       0.10842566
C        3.30579231       4.66962882       1.66295267      -0.19072050      -0.26459786       0.07096075      -0.48817167      -2.28725144      -0.40551554
C        3.31254193       3.21948401       1.70904764      -0.01816088       0.27470816      -0.20869584       1.61011071       0.63175738      -0.03575857
C        2.11350128       2.52824572       1.65927775       0.31282432       0.12969192      -0.91612928      -1.02208837      -1.40611204       0.35565588
C        2.11441658       1.08439553       1.73943857       0.87973233       0.36336898       0.19452732      -0.44914973      -0.49730053      -0.60116538